<?xml version="1.0" encoding="UTF-8"?>

<!-- generated on 09/17/22 21:09:26 by Eclipse SUMO GUI Version 1.4.0
<configuration xmlns:xsi="http://www.w3.org/2001/XMLSchema-instance" xsi:noNamespaceSchemaLocation="http://sumo.dlr.de/xsd/sumoConfiguration.xsd">

    <input>
        <net-file value="notls.net.xml"/>
        <route-files value="notls.rou.xml"/>
    </input>

    <output>
        <tripinfo-output value="tripinfo.xml"/>
    </output>

    <traci_server>
        <remote-port value="50407"/>
    </traci_server>

</configuration>
-->

<tripinfos xmlns:xsi="http://www.w3.org/2001/XMLSchema-instance" xsi:noNamespaceSchemaLocation="http://sumo.dlr.de/xsd/tripinfo_file.xsd">
    <tripinfo id="1" depart="1.00" departLane="gneE0_0" departPos="5.10" departSpeed="0.00" departDelay="0.00" arrival="21.00" arrivalLane="-gneE3_0" arrivalPos="86.40" arrivalSpeed="13.02" duration="20.00" routeLength="176.73" waitingTime="0.00" waitingCount="0" stopTime="0.00" timeLoss="5.82" rerouteNo="0" devices="tripinfo_1" vType="DEFAULT_VEHTYPE" speedFactor="0.94" vaporized=""/>
    <tripinfo id="2" depart="4.00" departLane="gneE0_0" departPos="5.10" departSpeed="0.00" departDelay="2.00" arrival="22.00" arrivalLane="-gneE2_1" arrivalPos="86.40" arrivalSpeed="13.31" duration="18.00" routeLength="194.90" waitingTime="0.00" waitingCount="0" stopTime="0.00" timeLoss="3.69" rerouteNo="0" devices="tripinfo_2" vType="DEFAULT_VEHTYPE" speedFactor="1.01" vaporized=""/>
    <tripinfo id="0" depart="0.00" departLane="gneE1_0" departPos="5.10" departSpeed="0.00" departDelay="0.00" arrival="23.00" arrivalLane="-gneE2_2" arrivalPos="86.40" arrivalSpeed="13.94" duration="23.00" routeLength="192.21" waitingTime="1.00" waitingCount="1" stopTime="0.00" timeLoss="9.32" rerouteNo="0" devices="tripinfo_0" vType="DEFAULT_VEHTYPE" speedFactor="1.06" vaporized=""/>
    <tripinfo id="7" depart="7.00" departLane="gneE1_0" departPos="5.10" departSpeed="0.00" departDelay="0.00" arrival="25.00" arrivalLane="-gneE0_0" arrivalPos="86.40" arrivalSpeed="13.45" duration="18.00" routeLength="176.73" waitingTime="0.00" waitingCount="0" stopTime="0.00" timeLoss="5.27" rerouteNo="0" devices="tripinfo_7" vType="DEFAULT_VEHTYPE" speedFactor="1.05" vaporized=""/>
    <tripinfo id="8" depart="8.00" departLane="gneE3_0" departPos="5.10" departSpeed="0.00" departDelay="0.00" arrival="27.00" arrivalLane="-gneE2_0" arrivalPos="86.40" arrivalSpeed="11.30" duration="19.00" routeLength="176.73" waitingTime="0.00" waitingCount="0" stopTime="0.00" timeLoss="3.96" rerouteNo="0" devices="tripinfo_8" vType="DEFAULT_VEHTYPE" speedFactor="0.89" vaporized=""/>
    <tripinfo id="5" depart="5.00" departLane="gneE1_0" departPos="5.10" departSpeed="0.00" departDelay="0.00" arrival="30.00" arrivalLane="-gneE3_1" arrivalPos="86.40" arrivalSpeed="13.02" duration="25.00" routeLength="194.90" waitingTime="1.00" waitingCount="1" stopTime="0.00" timeLoss="10.50" rerouteNo="0" devices="tripinfo_5" vType="DEFAULT_VEHTYPE" speedFactor="1.03" vaporized=""/>
    <tripinfo id="4" depart="4.00" departLane="gneE3_0" departPos="5.10" departSpeed="0.00" departDelay="0.00" arrival="32.00" arrivalLane="-gneE0_2" arrivalPos="86.40" arrivalSpeed="14.63" duration="28.00" routeLength="192.21" waitingTime="2.00" waitingCount="2" stopTime="0.00" timeLoss="14.54" rerouteNo="0" devices="tripinfo_4" vType="DEFAULT_VEHTYPE" speedFactor="1.08" vaporized=""/>
    <tripinfo id="6" depart="6.00" departLane="gneE3_0" departPos="5.10" departSpeed="0.00" departDelay="0.00" arrival="36.00" arrivalLane="-gneE0_2" arrivalPos="86.40" arrivalSpeed="11.46" duration="30.00" routeLength="192.21" waitingTime="2.00" waitingCount="1" stopTime="0.00" timeLoss="12.67" rerouteNo="0" devices="tripinfo_6" vType="DEFAULT_VEHTYPE" speedFactor="0.83" vaporized=""/>
    <tripinfo id="11" depart="11.00" departLane="gneE3_0" departPos="5.10" departSpeed="0.00" departDelay="0.00" arrival="36.00" arrivalLane="-gneE1_1" arrivalPos="86.40" arrivalSpeed="10.93" duration="25.00" routeLength="194.90" waitingTime="1.00" waitingCount="1" stopTime="0.00" timeLoss="7.76" rerouteNo="0" devices="tripinfo_11" vType="DEFAULT_VEHTYPE" speedFactor="0.86" vaporized=""/>
    <tripinfo id="12" depart="13.00" departLane="gneE3_0" departPos="5.10" departSpeed="0.00" departDelay="1.00" arrival="37.00" arrivalLane="-gneE1_1" arrivalPos="86.40" arrivalSpeed="14.35" duration="24.00" routeLength="194.90" waitingTime="0.00" waitingCount="0" stopTime="0.00" timeLoss="10.79" rerouteNo="0" devices="tripinfo_12" vType="DEFAULT_VEHTYPE" speedFactor="1.09" vaporized=""/>
    <tripinfo id="19" depart="19.00" departLane="gneE2_0" departPos="5.10" departSpeed="0.00" departDelay="0.00" arrival="39.00" arrivalLane="-gneE1_0" arrivalPos="86.40" arrivalSpeed="13.60" duration="20.00" routeLength="176.73" waitingTime="0.00" waitingCount="0" stopTime="0.00" timeLoss="5.44" rerouteNo="0" devices="tripinfo_19" vType="DEFAULT_VEHTYPE" speedFactor="0.99" vaporized=""/>
    <tripinfo id="10" depart="10.00" departLane="gneE1_0" departPos="5.10" departSpeed="0.00" departDelay="0.00" arrival="40.00" arrivalLane="-gneE2_2" arrivalPos="86.40" arrivalSpeed="12.17" duration="30.00" routeLength="192.21" waitingTime="2.00" waitingCount="2" stopTime="0.00" timeLoss="14.52" rerouteNo="0" devices="tripinfo_10" vType="DEFAULT_VEHTYPE" speedFactor="0.94" vaporized=""/>
    <tripinfo id="16" depart="16.00" departLane="gneE2_0" departPos="5.10" departSpeed="0.00" departDelay="0.00" arrival="41.00" arrivalLane="-gneE0_1" arrivalPos="86.40" arrivalSpeed="14.28" duration="25.00" routeLength="194.90" waitingTime="1.00" waitingCount="1" stopTime="0.00" timeLoss="11.35" rerouteNo="0" devices="tripinfo_16" vType="DEFAULT_VEHTYPE" speedFactor="1.05" vaporized=""/>
    <tripinfo id="17" depart="17.00" departLane="gneE0_0" departPos="5.10" departSpeed="0.00" departDelay="0.00" arrival="41.00" arrivalLane="-gneE2_1" arrivalPos="86.40" arrivalSpeed="14.75" duration="24.00" routeLength="194.90" waitingTime="1.00" waitingCount="1" stopTime="0.00" timeLoss="10.68" rerouteNo="0" devices="tripinfo_17" vType="DEFAULT_VEHTYPE" speedFactor="1.12" vaporized=""/>
    <tripinfo id="22" depart="22.00" departLane="gneE0_0" departPos="5.10" departSpeed="0.00" departDelay="0.00" arrival="42.00" arrivalLane="-gneE3_0" arrivalPos="86.40" arrivalSpeed="12.44" duration="20.00" routeLength="176.73" waitingTime="0.00" waitingCount="0" stopTime="0.00" timeLoss="5.46" rerouteNo="0" devices="tripinfo_22" vType="DEFAULT_VEHTYPE" speedFactor="0.94" vaporized=""/>
    <tripinfo id="24" depart="24.00" departLane="gneE1_0" departPos="5.10" departSpeed="0.00" departDelay="0.00" arrival="42.00" arrivalLane="-gneE0_0" arrivalPos="86.40" arrivalSpeed="14.89" duration="18.00" routeLength="176.73" waitingTime="0.00" waitingCount="0" stopTime="0.00" timeLoss="6.01" rerouteNo="0" devices="tripinfo_24" vType="DEFAULT_VEHTYPE" speedFactor="1.16" vaporized=""/>
    <tripinfo id="14" depart="15.00" departLane="gneE3_0" departPos="5.10" departSpeed="0.00" departDelay="1.00" arrival="45.00" arrivalLane="-gneE0_2" arrivalPos="86.40" arrivalSpeed="13.81" duration="30.00" routeLength="192.21" waitingTime="3.00" waitingCount="2" stopTime="0.00" timeLoss="15.72" rerouteNo="0" devices="tripinfo_14" vType="DEFAULT_VEHTYPE" speedFactor="1.03" vaporized=""/>
    <tripinfo id="21" depart="21.00" departLane="gneE3_0" departPos="5.10" departSpeed="0.00" departDelay="0.00" arrival="47.00" arrivalLane="-gneE1_1" arrivalPos="86.40" arrivalSpeed="11.08" duration="26.00" routeLength="194.90" waitingTime="1.00" waitingCount="1" stopTime="0.00" timeLoss="9.31" rerouteNo="0" devices="tripinfo_21" vType="DEFAULT_VEHTYPE" speedFactor="0.88" vaporized=""/>
    <tripinfo id="23" depart="23.00" departLane="gneE3_0" departPos="5.10" departSpeed="0.00" departDelay="0.00" arrival="49.00" arrivalLane="-gneE0_2" arrivalPos="86.40" arrivalSpeed="11.90" duration="26.00" routeLength="192.21" waitingTime="1.00" waitingCount="1" stopTime="0.00" timeLoss="10.54" rerouteNo="0" devices="tripinfo_23" vType="DEFAULT_VEHTYPE" speedFactor="0.94" vaporized=""/>
    <tripinfo id="20" depart="20.00" departLane="gneE1_0" departPos="5.10" departSpeed="0.00" departDelay="0.00" arrival="50.00" arrivalLane="-gneE2_2" arrivalPos="86.40" arrivalSpeed="12.37" duration="30.00" routeLength="192.21" waitingTime="2.00" waitingCount="2" stopTime="0.00" timeLoss="14.06" rerouteNo="0" devices="tripinfo_20" vType="DEFAULT_VEHTYPE" speedFactor="0.93" vaporized=""/>
    <tripinfo id="25" depart="27.00" departLane="gneE1_0" departPos="5.10" departSpeed="0.00" departDelay="2.00" arrival="52.00" arrivalLane="-gneE2_2" arrivalPos="86.40" arrivalSpeed="13.62" duration="25.00" routeLength="192.21" waitingTime="1.00" waitingCount="1" stopTime="0.00" timeLoss="10.17" rerouteNo="0" devices="tripinfo_25" vType="DEFAULT_VEHTYPE" speedFactor="1.02" vaporized=""/>
    <tripinfo id="29" depart="29.00" departLane="gneE0_0" departPos="5.10" departSpeed="0.00" departDelay="0.00" arrival="53.00" arrivalLane="-gneE2_1" arrivalPos="86.40" arrivalSpeed="14.02" duration="24.00" routeLength="194.90" waitingTime="0.00" waitingCount="0" stopTime="0.00" timeLoss="9.36" rerouteNo="0" devices="tripinfo_29" vType="DEFAULT_VEHTYPE" speedFactor="1.01" vaporized=""/>
    <tripinfo id="30" depart="30.00" departLane="gneE1_0" departPos="5.10" departSpeed="0.00" departDelay="0.00" arrival="54.00" arrivalLane="-gneE2_2" arrivalPos="86.40" arrivalSpeed="13.40" duration="24.00" routeLength="192.21" waitingTime="0.00" waitingCount="0" stopTime="0.00" timeLoss="9.02" rerouteNo="0" devices="tripinfo_30" vType="DEFAULT_VEHTYPE" speedFactor="0.98" vaporized=""/>
    <tripinfo id="36" depart="36.00" departLane="gneE2_0" departPos="5.10" departSpeed="0.00" departDelay="0.00" arrival="56.00" arrivalLane="-gneE1_0" arrivalPos="86.40" arrivalSpeed="12.01" duration="20.00" routeLength="176.73" waitingTime="0.00" waitingCount="0" stopTime="0.00" timeLoss="5.06" rerouteNo="0" devices="tripinfo_36" vType="DEFAULT_VEHTYPE" speedFactor="0.95" vaporized=""/>
    <tripinfo id="32" depart="32.00" departLane="gneE3_0" departPos="5.10" departSpeed="0.00" departDelay="0.00" arrival="57.00" arrivalLane="-gneE0_2" arrivalPos="86.40" arrivalSpeed="11.73" duration="25.00" routeLength="192.21" waitingTime="1.00" waitingCount="1" stopTime="0.00" timeLoss="7.95" rerouteNo="0" devices="tripinfo_32" vType="DEFAULT_VEHTYPE" speedFactor="0.89" vaporized=""/>
    <tripinfo id="33" depart="33.00" departLane="gneE1_0" departPos="5.10" departSpeed="0.00" departDelay="0.00" arrival="62.00" arrivalLane="-gneE2_2" arrivalPos="86.40" arrivalSpeed="10.78" duration="29.00" routeLength="192.21" waitingTime="1.00" waitingCount="1" stopTime="0.00" timeLoss="10.76" rerouteNo="0" devices="tripinfo_33" vType="DEFAULT_VEHTYPE" speedFactor="0.83" vaporized=""/>
    <tripinfo id="34" depart="34.00" departLane="gneE1_0" departPos="5.10" departSpeed="0.00" departDelay="0.00" arrival="64.00" arrivalLane="-gneE2_2" arrivalPos="86.40" arrivalSpeed="12.06" duration="30.00" routeLength="192.21" waitingTime="1.00" waitingCount="1" stopTime="0.00" timeLoss="12.53" rerouteNo="0" devices="tripinfo_34" vType="DEFAULT_VEHTYPE" speedFactor="0.87" vaporized=""/>
    <tripinfo id="44" depart="44.00" departLane="gneE3_0" departPos="5.10" departSpeed="0.00" departDelay="0.00" arrival="64.00" arrivalLane="-gneE1_1" arrivalPos="86.40" arrivalSpeed="15.81" duration="20.00" routeLength="194.90" waitingTime="0.00" waitingCount="0" stopTime="0.00" timeLoss="7.04" rerouteNo="0" devices="tripinfo_44" vType="DEFAULT_VEHTYPE" speedFactor="1.15" vaporized=""/>
    <tripinfo id="46" depart="46.00" departLane="gneE0_0" departPos="5.10" departSpeed="0.00" departDelay="0.00" arrival="64.00" arrivalLane="-gneE3_0" arrivalPos="86.40" arrivalSpeed="16.20" duration="18.00" routeLength="176.73" waitingTime="0.00" waitingCount="0" stopTime="0.00" timeLoss="6.19" rerouteNo="0" devices="tripinfo_46" vType="DEFAULT_VEHTYPE" speedFactor="1.17" vaporized=""/>
    <tripinfo id="45" depart="45.00" departLane="gneE2_0" departPos="5.10" departSpeed="0.00" departDelay="0.00" arrival="65.00" arrivalLane="-gneE1_0" arrivalPos="86.40" arrivalSpeed="13.75" duration="20.00" routeLength="176.73" waitingTime="0.00" waitingCount="0" stopTime="0.00" timeLoss="5.55" rerouteNo="0" devices="tripinfo_45" vType="DEFAULT_VEHTYPE" speedFactor="1.01" vaporized=""/>
    <tripinfo id="41" depart="41.00" departLane="gneE0_0" departPos="5.10" departSpeed="0.00" departDelay="0.00" arrival="66.00" arrivalLane="-gneE1_2" arrivalPos="86.40" arrivalSpeed="15.25" duration="25.00" routeLength="192.21" waitingTime="1.00" waitingCount="1" stopTime="0.00" timeLoss="11.45" rerouteNo="0" devices="tripinfo_41" vType="DEFAULT_VEHTYPE" speedFactor="1.13" vaporized=""/>
    <tripinfo id="49" depart="49.00" departLane="gneE0_0" departPos="5.10" departSpeed="0.00" departDelay="0.00" arrival="68.00" arrivalLane="-gneE3_0" arrivalPos="86.40" arrivalSpeed="13.62" duration="19.00" routeLength="176.73" waitingTime="0.00" waitingCount="0" stopTime="0.00" timeLoss="5.09" rerouteNo="0" devices="tripinfo_49" vType="DEFAULT_VEHTYPE" speedFactor="1.02" vaporized=""/>
    <tripinfo id="43" depart="43.00" departLane="gneE1_0" departPos="5.10" departSpeed="0.00" departDelay="0.00" arrival="69.00" arrivalLane="-gneE3_1" arrivalPos="86.40" arrivalSpeed="15.21" duration="26.00" routeLength="194.90" waitingTime="2.00" waitingCount="2" stopTime="0.00" timeLoss="13.90" rerouteNo="0" devices="tripinfo_43" vType="DEFAULT_VEHTYPE" speedFactor="1.18" vaporized=""/>
    <tripinfo id="35" depart="35.00" departLane="gneE1_0" departPos="5.10" departSpeed="0.00" departDelay="0.00" arrival="71.00" arrivalLane="-gneE2_2" arrivalPos="86.40" arrivalSpeed="12.53" duration="36.00" routeLength="192.21" waitingTime="3.00" waitingCount="3" stopTime="0.00" timeLoss="19.77" rerouteNo="0" devices="tripinfo_35" vType="DEFAULT_VEHTYPE" speedFactor="0.92" vaporized=""/>
    <tripinfo id="42" depart="42.00" departLane="gneE0_0" departPos="5.10" departSpeed="0.00" departDelay="0.00" arrival="73.00" arrivalLane="-gneE1_2" arrivalPos="86.40" arrivalSpeed="12.32" duration="31.00" routeLength="192.21" waitingTime="1.00" waitingCount="1" stopTime="0.00" timeLoss="14.76" rerouteNo="0" devices="tripinfo_42" vType="DEFAULT_VEHTYPE" speedFactor="0.93" vaporized=""/>
    <tripinfo id="48" depart="48.00" departLane="gneE1_0" departPos="5.10" departSpeed="0.00" departDelay="0.00" arrival="75.00" arrivalLane="-gneE2_2" arrivalPos="86.40" arrivalSpeed="13.22" duration="27.00" routeLength="192.21" waitingTime="1.00" waitingCount="1" stopTime="0.00" timeLoss="12.41" rerouteNo="0" devices="tripinfo_48" vType="DEFAULT_VEHTYPE" speedFactor="0.99" vaporized=""/>
</tripinfos>
